# vtk DataFile Version 4.0
 
ASCII
DATASET UNSTRUCTURED_GRID
POINTS 20301 float
-2.0 -2.0 0.0
-1.98 -2.0 0.0
-1.96 -2.0 0.0
-1.94 -2.0 0.0
-1.92 -2.0 0.0
-1.9 -2.0 0.0
-1.88 -2.0 0.0
-1.86 -2.0 0.0
-1.84 -2.0 0.0
-1.82 -2.0 0.0
-1.8 -2.0 0.0
-1.78 -2.0 0.0
-1.76 -2.0 0.0
-1.74 -2.0 0.0
-1.72 -2.0 0.0
-1.7 -2.0 0.0
-1.68 -2.0 0.0
-1.66 -2.0 0.0
-1.64 -2.0 0.0
-1.62 -2.0 0.0
-1.6 -2.0 0.0
-1.58 -2.0 0.0
-1.56 -2.0 0.0
-1.54 -2.0 0.0
-1.52 -2.0 0.0
-1.5 -2.0 0.0
-1.48 -2.0 0.0
-1.46 -2.0 0.0
-1.44 -2.0 0.0
-1.42 -2.0 0.0
-1.4 -2.0 0.0
-1.38 -2.0 0.0
-1.36 -2.0 0.0
-1.34 -2.0 0.0
-1.32 -2.0 0.0
-1.3 -2.0 0.0
-1.28 -2.0 0.0
-1.26 -2.0 0.0
-1.24 -2.0 0.0
-1.22 -2.0 0.0
-1.2 -2.0 0.0
-1.18 -2.0 0.0
-1.16 -2.0 0.0
-1.14 -2.0 0.0
-1.12 -2.0 0.0
-1.1 -2.0 0.0
-1.08 -2.0 0.0
-1.06 -2.0 0.0
-1.04 -2.0 0.0
-1.02 -2.0 0.0
-1.0 -2.0 0.0
-0.98 -2.0 0.0
-0.96 -2.0 0.0
-0.94 -2.0 0.0
-0.92 -2.0 0.0
-0.9 -2.0 0.0
-0.88 -2.0 0.0
-0.86 -2.0 0.0
-0.84 -2.0 0.0
-0.82 -2.0 0.0
-0.8 -2.0 0.0
-0.78 -2.0 0.0
-0.76 -2.0 0.0
-0.74 -2.0 0.0
-0.72 -2.0 0.0
-0.7 -2.0 0.0
-0.68 -2.0 0.0
-0.66 -2.0 0.0
-0.64 -2.0 0.0
-0.62 -2.0 0.0
-0.6 -2.0 0.0
-0.58 -2.0 0.0
-0.56 -2.0 0.0
-0.54 -2.0 0.0
-0.52 -2.0 0.0
-0.5 -2.0 0.0
-0.48 -2.0 0.0
-0.46 -2.0 0.0
-0.44 -2.0 0.0
-0.42 -2.0 0.0
-0.4 -2.0 0.0
-0.38 -2.0 0.0
-0.36 -2.0 0.0
-0.34 -2.0 0.0
-0.32 -2.0 0.0
-0.3 -2.0 0.0
-0.28 -2.0 0.0
-0.26 -2.0 0.0
-0.24 -2.0 0.0
-0.22 -2.0 0.0
-0.2 -2.0 0.0
-0.18 -2.0 0.0
-0.16 -2.0 0.0
-0.14 -2.0 0.0
-0.12 -2.0 0.0
-0.1 -2.0 0.0
-0.08 -2.0 0.0
-0.06 -2.0 0.0
-0.04 -2.0 0.0
-0.02 -2.0 0.0
0.0 -2.0 0.0
0.02 -2.0 0.0
0.04 -2.0 0.0
0.06 -2.0 0.0
0.08 -2.0 0.0
0.1 -2.0 0.0
0.12 -2.0 0.0
0.14 -2.0 0.0
0.16 -2.0 0.0
0.18 -2.0 0.0
0.2 -2.0 0.0
0.22 -2.0 0.0
0.24 -2.0 0.0
0.26 -2.0 0.0
0.28 -2.0 0.0
0.3 -2.0 0.0
0.32 -2.0 0.0
0.34 -2.0 0.0
0.36 -2.0 0.0
0.38 -2.0 0.0
0.4 -2.0 0.0
0.42 -2.0 0.0
0.44 -2.0 0.0
0.46 -2.0 0.0
0.48 -2.0 0.0
0.5 -2.0 0.0
0.52 -2.0 0.0
0.54 -2.0 0.0
0.56 -2.0 0.0
0.58 -2.0 0.0
0.6 -2.0 0.0
0.62 -2.0 0.0
0.64 -2.0 0.0
0.66 -2.0 0.0
0.68 -2.0 0.0
0.7 -2.0 0.0
0.72 -2.0 0.0
0.74 -2.0 0.0
0.76 -2.0 0.0
0.78 -2.0 0.0
0.8 -2.0 0.0
0.82 -2.0 0.0
0.84 -2.0 0.0
0.86 -2.0 0.0
0.88 -2.0 0.0
0.9 -2.0 0.0
0.92 -2.0 0.0
0.94 -2.0 0.0
0.96 -2.0 0.0
0.98 -2.0 0.0
1.0 -2.0 0.0
1.02 -2.0 0.0
1.04 -2.0 0.0
1.06 -2.0 0.0
1.08 -2.0 0.0
1.1 -2.0 0.0
1.12 -2.0 0.0
1.14 -2.0 0.0
1.16 -2.0 0.0
1.18 -2.0 0.0
1.2 -2.0 0.0
1.22 -2.0 0.0
1.24 -2.0 0.0
1.26 -2.0 0.0
1.28 -2.0 0.0
1.3 -2.0 0.0
1.32 -2.0 0.0
1.34 -2.0 0.0
1.36 -2.0 0.0
1.38 -2.0 0.0
1.4 -2.0 0.0
1.42 -2.0 0.0
1.44 -2.0 0.0
1.46 -2.0 0.0
1.48 -2.0 0.0
1.5 -2.0 0.0
1.52 -2.0 0.0
1.54 -2.0 0.0
1.56 -2.0 0.0
1.58 -2.0 0.0
1.6 -2.0 0.0
1.62 -2.0 0.0
1.64 -2.0 0.0
1.66 -2.0 0.0
1.68 -2.0 0.0
1.7 -2.0 0.0
1.72 -2.0 0.0
1.74 -2.0 0.0
1.76 -2.0 0.0
1.78 -2.0 0.0
1.8 -2.0 0.0
1.82 -2.0 0.0
1.84 -2.0 0.0
1.86 -2.0 0.0
1.88 -2.0 0.0
1.9 -2.0 0.0
1.92 -2.0 0.0
1.94 -2.0 0.0
1.96 -2.0 0.0
1.98 -2.0 0.0
2.0 -2.0 0.0
-2.0 -1.96 0.0
-1.98 -1.96 0.0
-1.96 -1.96 0.0
-1.94 -1.96 0.0
-1.92 -1.96 0.0
-1.9 -1.96 0.0
-1.88 -1.96 0.0
-1.86 -1.96 0.0
-1.84 -1.96 0.0
-1.82 -1.96 0.0
-1.8 -1.96 0.0
-1.78 -1.96 0.0
-1.76 -1.96 0.0
-1.74 -1.96 0.0
-1.72 -1.96 0.0
-1.7 -1.96 0.0
-1.68 -1.96 0.0
-1.66 -1.96 0.0
-1.64 -1.96 0.0
-1.62 -1.96 0.0
-1.6 -1.96 0.0
-1.58 -1.96 0.0
-1.56 -1.96 0.0
-1.54 -1.96 0.0
-1.52 -1.96 0.0
-1.5 -1.96 0.0
-1.48 -1.96 0.0
-1.46 -1.96 0.0
-1.44 -1.96 0.0
-1.42 -1.96 0.0
-1.4 -1.96 0.0
-1.38 -1.96 0.0
-1.36 -1.96 0.0
-1.34 -1.96 0.0
-1.32 -1.96 0.0
-1.3 -1.96 0.0
-1.28 -1.96 0.0
-1.26 -1.96 0.0
-1.24 -1.96 0.0
-1.22 -1.96 0.0
-1.2 -1.96 0.0
-1.18 -1.96 0.0
-1.16 -1.96 0.0
-1.14 -1.96 0.0
-1.12 -1.96 0.0
-1.1 -1.96 0.0
-1.08 -1.96 0.0
-1.06 -1.96 0.0
-1.04 -1.96 0.0
-1.02 -1.96 0.0
-1.0 -1.96 0.0
-0.98 -1.96 0.0
-0.96 -1.96 0.0
-0.94 -1.96 0.0
-0.92 -1.96 0.0
-0.9 -1.96 0.0
-0.88 -1.96 0.0
-0.86 -1.96 0.0
-0.84 -1.96 0.0
-0.82 -1.96 0.0
-0.8 -1.96 0.0
-0.78 -1.96 0.0
-0.76 -1.96 0.0
-0.74 -1.96 0.0
-0.72 -1.96 0.0
-0.7 -1.96 0.0
-0.68 -1.96 0.0
-0.66 -1.96 0.0
-0.64 -1.96 0.0
-0.62 -1.96 0.0
-0.6 -1.96 0.0
-0.58 -1.96 0.0
-0.56 -1.96 0.0
-0.54 -1.96 0.0
-0.52 -1.96 0.0
-0.5 -1.96 0.0
-0.48 -1.96 0.0
-0.46 -1.96 0.0
-0.44 -1.96 0.0
-0.42 -1.96 0.0
-0.4 -1.96 0.0
-0.38 -1.96 0.0
-0.36 -1.96 0.0
-0.34 -1.96 0.0
-0.32 -1.96 0.0
-0.3 -1.96 0.0
-0.28 -1.96 0.0
-0.26 -1.96 0.0
-0.24 -1.96 0.0
-0.22 -1.96 0.0
-0.2 -1.96 0.0
-0.18 -1.96 0.0
-0.16 -1.96 0.0
-0.14 -1.96 0.0
-0.12 -1.96 0.0
-0.1 -1.96 0.0
-0.08 -1.96 0.0
-0.06 -1.96 0.0
-0.04 -1.96 0.0
-0.02 -1.96 0.0
0.0 -1.96 0.0
0.02 -1.96 0.0
0.04 -1.96 0.0
0.06 -1.96 0.0
0.08 -1.96 0.0
0.1 -1.96 0.0
0.12 -1.96 0.0
0.14 -1.96 0.0
0.16 -1.96 0.0
0.18 -1.96 0.0
0.2 -1.96 0.0
0.22 -1.96 0.0
0.24 -1.96 0.0
0.26 -1.96 0.0
0.28 -1.96 0.0
0.3 -1.96 0.0
0.32 -1.96 0.0
0.34 -1.96 0.0
0.36 -1.96 0.0
0.38 -1.96 0.0
0.4 -1.96 0.0
0.42 -1.96 0.0
0.44 -1.96 0.0
0.46 -1.96 0.0
0.48 -1.96 0.0
0.5 -1.96 0.0
0.52 -1.96 0.0
0.54 -1.96 0.0
0.56 -1.96 0.0
0.58 -1.96 0.0
0.6 -1.96 0.0
0.62 -1.96 0.0
0.64 -1.96 0.0
0.66 -1.96 0.0
0.68 -1.96 0.0
0.7 -1.96 0.0
0.72 -1.96 0.0
0.74 -1.96 0.0
0.76 -1.96 0.0
0.78 -1.96 0.0
0.8 -1.96 0.0
0.82 -1.96 0.0
0.84 -1.96 0.0
0.86 -1.96 0.0
0.88 -1.96 0.0
0.9 -1.96 0.0
0.92 -1.96 0.0
0.94 -1.96 0.0
0.96 -1.96 0.0
0.98 -1.96 0.0
1.0 -1.96 0.0
1.02 -1.96 0.0
1.04 -1.96 0.0
1.06 -1.96 0.0
1.08 -1.96 0.0
1.1 -1.96 0.0
1.12 -1.96 0.0
1.14 -1.96 0.0
1.16 -1.96 0.0
1.18 -1.96 0.0
1.2 -1.96 0.0
1.22 -1.96 0.0
1.24 -1.96 0.0
1.26 -1.96 0.0
1.28 -1.96 0.0
1.3 -1.96 0.0
1.32 -1.96 0.0
1.34 -1.96 0.0
1.36 -1.96 0.0
1.38 -1.96 0.0
1.4 -1.96 0.0
1.42 -1.96 0.0
1.44 -1.96 0.0
1.46 -1.96 0.0
1.48 -1.96 0.0
1.5 -1.96 0.0
1.52 -1.96 0.0
1.54 -1.96 0.0
1.56 -1.96 0.0
1.58 -1.96 0.0
1.6 -1.96 0.0
1.62 -1.96 0.0
1.64 -1.96 0.0
1.66 -1.96 0.0
1.68 -1.96 0.0
1.7 -1.96 0.0
1.72 -1.96 0.0
1.74 -1.96 0.0
1.76 -1.96 0.0
1.78 -1.96 0.0
1.8 -1.96 0.0
1.82 -1.96 0.0
1.84 -1.96 0.0
1.86 -1.96 0.0
1.88 -1.96 0.0
1.9 -1.96 0.0
1.92 -1.96 0.0
1.94 -1.96 0.0
1.96 -1.96 0.0
1.98 -1.96 0.0
2.0 -1.96 0.0
-2.0 -1.92 0.0
-1.98 -1.92 0.0
-1.96 -1.92 0.0
-1.94 -1.92 0.0
-1.92 -1.92 0.0
-1.9 -1.92 0.0
-1.88 -1.92 0.0
-1.86 -1.92 0.0
-1.84 -1.92 0.0
-1.82 -1.92 0.0
-1.8 -1.92 0.0
-1.78 -1.92 0.0
-1.76 -1.92 0.0
-1.74 -1.92 0.0
-1.72 -1.92 0.0
-1.7 -1.92 0.0
-1.68 -1.92 0.0
-1.66 -1.92 0.0
-1.64 -1.92 0.0
-1.62 -1.92 0.0
-1.6 -1.92 0.0
-1.58 -1.92 0.0
-1.56 -1.92 0.0
-1.54 -1.92 0.0
-1.52 -1.92 0.0
-1.5 -1.92 0.0
-1.48 -1.92 0.0
-1.46 -1.92 0.0
-1.44 -1.92 0.0
-1.42 -1.92 0.0
-1.4 -1.92 0.0
-1.38 -1.92 0.0
-1.36 -1.92 0.0
-1.34 -1.92 0.0
-1.32 -1.92 0.0
-1.3 -1.92 0.0
-1.28 -1.92 0.0
-1.26 -1.92 0.0
-1.24 -1.92 0.0
-1.22 -1.92 0.0
-1.2 -1.92 0.0
-1.18 -1.92 0.0
-1.16 -1.92 0.0
-1.14 -1.92 0.0
-1.12 -1.92 0.0
-1.1 -1.92 0.0
-1.08 -1.92 0.0
-1.06 -1.92 0.0
-1.04 -1.92 0.0
-1.02 -1.92 0.0
-1.0 -1.92 0.0
-0.98 -1.92 0.0
-0.96 -1.92 0.0
-0.94 -1.92 0.0
-0.92 -1.92 0.0
-0.9 -1.92 0.0
-0.88 -1.92 0.0
-0.86 -1.92 0.0
-0.84 -1.92 0.0
-0.82 -1.92 0.0
-0.8 -1.92 0.0
-0.78 -1.92 0.0
-0.76 -1.92 0.0
-0.74 -1.92 0.0
-0.72 -1.92 0.0
-0.7 -1.92 0.0
-0.68 -1.92 0.0
-0.66 -1.92 0.0
-0.64 -1.92 0.0
-0.62 -1.92 0.0
-0.6 -1.92 0.0
-0.58 -1.92 0.0
-0.56 -1.92 0.0
-0.54 -1.92 0.0
-0.52 -1.92 0.0
-0.5 -1.92 0.0
-0.48 -1.92 0.0
-0.46 -1.92 0.0
-0.44 -1.92 0.0
-0.42 -1.92 0.0
-0.4 -1.92 0.0
-0.38 -1.92 0.0
-0.36 -1.92 0.0
-0.34 -1.92 0.0
-0.32 -1.92 0.0
-0.3 -1.92 0.0
-0.28 -1.92 0.0
-0.26 -1.92 0.0
-0.24 -1.92 0.0
-0.22 -1.92 0.0
-0.2 -1.92 0.0
-0.18 -1.92 0.0
-0.16 -1.92 0.0
-0.14 -1.92 0.0
-0.12 -1.92 0.0
-0.1 -1.92 0.0
-0.08 -1.92 0.0
-0.06 -1.92 0.0
-0.04 -1.92 0.0
-0.02 -1.92 0.0
0.0 -1.92 0.0
0.02 -1.92 0.0
0.04 -1.92 0.0
0.06 -1.92 0.0
0.08 -1.92 0.0
0.1 -1.92 0.0
0.12 -1.92 0.0
0.14 -1.92 0.0
0.16 -1.92 0.0
0.18 -1.92 0.0
0.2 -1.92 0.0
0.22 -1.92 0.0
0.24 -1.92 0.0
0.26 -1.92 0.0
0.28 -1.92 0.0
0.3 -1.92 0.0
0.32 -1.92 0.0
0.34 -1.92 0.0
0.36 -1.92 0.0
0.38 -1.92 0.0
0.4 -1.92 0.0
0.42 -1.92 0.0
0.44 -1.92 0.0
0.46 -1.92 0.0
0.48 -1.92 0.0
0.5 -1.92 0.0
0.52 -1.92 0.0
0.54 -1.92 0.0
0.56 -1.92 0.0
0.58 -1.92 0.0
0.6 -1.92 0.0
0.62 -1.92 0.0
0.64 -1.92 0.0
0.66 -1.92 0.0
0.68 -1.92 0.0
0.7 -1.92 0.0
0.72 -1.92 0.0
0.74 -1.92 0.0
0.76 -1.92 0.0
0.78 -1.92 0.0
0.8 -1.92 0.0
0.82 -1.92 0.0
0.84 -1.92 0.0
0.86 -1.92 0.0
0.88 -1.92 0.0
0.9 -1.92 0.0
0.92 -1.92 0.0
0.94 -1.92 0.0
0.96 -1.92 0.0
0.98 -1.92 0.0
1.0 -1.92 0.0
1.02 -1.92 0.0
1.04 -1.92 0.0
1.06 -1.92 0.0
1.08 -1.92 0.0
1.1 -1.92 0.0
1.12 -1.92 0.0
1.14 -1.92 0.0
1.16 -1.92 0.0
1.18 -1.92 0.0
1.2 -1.92 0.0
1.22 -1.92 0.0
1.24 -1.92 0.0
1.26 -1.92 0.0
1.28 -1.92 0.0
1.3 -1.92 0.0
1.32 -1.92 0.0
1.34 -1.92 0.0
1.36 -1.92 0.0
1.38 -1.92 0.0
1.4 -1.92 0.0
1.42 -1.92 0.0
1.44 -1.92 0.0
1.46 -1.92 0.0
1.48 -1.92 0.0
1.5 -1.92 0.0
1.52 -1.92 0.0
1.54 -1.92 0.0
1.56 -1.92 0.0
1.58 -1.92 0.0
1.6 -1.92 0.0
1.62 -1.92 0.0
1.64 -1.92 0.0
1.66 -1.92 0.0
1.68 -1.92 0.0
1.7 -1.92 0.0
1.72 -1.92 0.0
1.74 -1.92 0.0
1.76 -1.92 0.0
1.78 -1.92 0.0
1.8 -1.92 0.0
1.82 -1.92 0.0
1.84 -1.92 0.0
1.86 -1.92 0.0
1.88 -1.92 0.0
1.9 -1.92 0.0
1.92 -1.92 0.0
1.94 -1.92 0.0
1.96 -1.92 0.0
1.98 -1.92 0.0
2.0 -1.92 0.0
-2.0 -1.88 0.0
-1.98 -1.88 0.0
-1.96 -1.88 0.0
-1.94 -1.88 0.0
-1.92 -1.88 0.0
-1.9 -1.88 0.0
-1.88 -1.88 0.0
-1.86 -1.88 0.0
-1.84 -1.88 0.0
-1.82 -1.88 0.0
-1.8 -1.88 0.0
-1.78 -1.88 0.0
-1.76 -1.88 0.0
-1.74 -1.88 0.0
-1.72 -1.88 0.0
-1.7 -1.88 0.0
-1.68 -1.88 0.0
-1.66 -1.88 0.0
-1.64 -1.88 0.0
-1.62 -1.88 0.0
-1.6 -1.88 0.0
-1.58 -1.88 0.0
-1.56 -1.88 0.0
-1.54 -1.88 0.0
-1.52 -1.88 0.0
-1.5 -1.88 0.0
-1.48 -1.88 0.0
-1.46 -1.88 0.0
-1.44 -1.88 0.0
-1.42 -1.88 0.0
-1.4 -1.88 0.0
-1.38 -1.88 0.0
-1.36 -1.88 0.0
-1.34 -1.88 0.0
-1.32 -1.88 0.0
-1.3 -1.88 0.0
-1.28 -1.88 0.0
-1.26 -1.88 0.0
-1.24 -1.88 0.0
-1.22 -1.88 0.0
-1.2 -1.88 0.0
-1.18 -1.88 0.0
-1.16 -1.88 0.0
-1.14 -1.88 0.0
-1.12 -1.88 0.0
-1.1 -1.88 0.0
-1.08 -1.88 0.0
-1.06 -1.88 0.0
-1.04 -1.88 0.0
-1.02 -1.88 0.0
-1.0 -1.88 0.0
-0.98 -1.88 0.0
-0.96 -1.88 0.0
-0.94 -1.88 0.0
-0.92 -1.88 0.0
-0.9 -1.88 0.0
[...]
POINT_DATA 20301

VECTORS U float
11.729464346838963 -1.7849406754113732 0.0
11.748156986644947 -1.784548260633612 0.0
11.767025715938628 -1.7839373936745968 0.0
11.786069038106309 -1.7831019522303424 0.0
11.805285280387633 -1.7820357461425562 0.0
11.824672588183475 -1.7807325216304846 0.0
11.844228919401477 -1.7791859658430604 0.0
11.86395203885542 -1.7773897117375614 0.0
11.883839512735399 -1.7753373432902748 0.0
11.903888703166551 -1.7730224010438393 0.0
11.924096762874797 -1.7704383879950296 0.0
11.944460629978781 -1.7675787758258192 0.0
11.964977022927847 -1.7644370114794947 0.0
11.985642435606424 -1.7610065240824828 0.0
12.006453132625872 -1.7572807322114075 0.0
12.027405144825137 -1.753253051503598 0.0
12.048494265002159 -1.748916902607996 0.0
12.06971604389811 -1.7442657194720153 0.0
12.091065786456939 -1.7392929579584862 0.0
12.112538548382734 -1.7339921047853386 0.0
12.134129133017495 -1.728356686779145 0.0
12.155832088561832 -1.7223802804320911 0.0
12.177641705660953 -1.7160565217503378 0.0
12.19955201537797 -1.7093791163801513 0.0
12.22155678757616 -1.7023418499965084 0.0
12.243649529731275 -1.6949385989372974 0.0
12.26582348619432 -1.687163341064597 0.0
12.28807163792441 -1.6790101668328932 0.0
12.310386702710414 -1.6704732905425612 0.0
12.332761135898966 -1.6615470617553736 0.0
12.355187131645337 -1.6522259768473204 0.0
12.377656624702222 -1.6425046906726315 0.0
12.400161292760128 -1.6323780283115263 0.0
12.422692559351468 -1.6218409968729868 0.0
12.445241597328746 -1.6108887973226755 0.0
12.467799332925491 -1.5995168363051209 0.0
12.490356450406665 -1.5877207379283114 0.0
12.512903397313316 -1.5754963554781198 0.0
12.53543039030414 -1.562839783029292 0.0
12.557927421594602 -1.5497473669192439 0.0
12.580384265991928 -1.5362157170505848 0.0
12.602790488522212 -1.5222417179880998 0.0
12.625135452643486 -1.5078225398159086 0.0
12.647408329036457 -1.4929556487206965 0.0
12.669598104962253 -1.4776388172672363 0.0
12.691693594174298 -1.4618701343329423 0.0
12.713683447369267 -1.4456480146688688 0.0
12.735556163159774 -1.428971208055446 0.0
12.75730009954949 -1.411838808022241 0.0
12.778903485889181 -1.3942502601022575 0.0
12.800354435290393 -1.3762053695925884 0.0
12.821640957471487 -1.35770430879477 0.0
12.842750972009153 -1.338747623709786 0.0
12.863672321966853 -1.3193362401644473 0.0
12.884392787870233 -1.2994714693477347 0.0
12.904900101998196 -1.279155012737664 0.0
12.92518196295728 -1.258388966401328 0.0
12.945226050505859 -1.2371758246528433 0.0
12.965020040594037 -1.2155184830562105 0.0
12.984551620584375 -1.1934202407622494 0.0
13.00380850461814 -1.170884802171096 0.0
13.02277844909155 -1.1479162779139966 0.0
13.04144926820631 -1.1245191851503986 0.0
13.059808849558872 -1.1006984471785943 0.0
13.077845169733024 -1.0764593923603907 0.0
13.095546309860916 -1.0518077523624092 0.0
13.112900471118056 -1.02674965971874 0.0
13.129895990118651 -1.0012916447216809 0.0
13.146521354178429 -0.9754406316491966 0.0
13.16276521641307 -0.9492039343395946 0.0
13.178616410641478 -0.9225892511255713 0.0
13.194063966064283 -0.8956046591414368 0.0
13.209097121689306 -0.8682586080187328 0.0
13.223705340476975 -0.840559912986845 0.0
13.2378783231802 -0.8125177473963652 0.0
13.251606021854613 -0.7841416346840635 0.0
13.264878653016623 -0.7554414397992217 0.0
13.27768671042821 -0.7264273601118938 0.0
13.290020977488954 -0.6971099158242826 0.0
13.301872539217321 -0.6674999399069693 0.0
13.313232793804652 -0.6376085675821076 0.0
13.324093463726875 -0.6074472253759624 0.0
13.334446606400371 -0.5770276197633424 0.0
13.344284624369713 -0.5463617254265122 0.0
13.35360027501645 -0.5154617731511139 0.0
13.362386679779316 -0.48434023738151954 0.0
13.370637332877354 -0.4530098234577646 0.0
13.378346109528685 -0.42148345455599345 0.0
13.385507273658552 -0.38977425835393853 0.0
13.392115485091276 -0.3578955534426112 0.0
13.39816580622159 -0.32586083550494316 0.0
13.40365370816156 -0.293683763281651 0.0
13.408575076360028 -0.2613781443441598 0.0
13.412926215692039 -0.22895792069394752 0.0
13.416703855016287 -0.19643715420718225 0.0
13.419905151199 -0.1638300119431497 0.0
13.422527692603094 -0.13115075133446788 0.0
13.424569502041681 -0.09841370527677412 0.0
13.426029039195278 -0.06563326713517087 0.0
13.426905202492264 -0.03282387568447248 0.0
13.42719733045227 3.885780586188048e-16 0.0
13.426905202492264 0.032823875684473175 0.0
13.426029039195276 0.06563326713517237 0.0
13.424569502041681 0.09841370527677529 0.0
13.422527692603094 0.13115075133446874 0.0
13.419905151199 0.16383001194314922 0.0
13.416703855016287 0.19643715420718194 0.0
13.41292621569204 0.2289579206939471 0.0
13.408575076360028 0.2613781443441611 0.0
13.40365370816156 0.2936837632816519 0.0
13.398165806221588 0.3258608355049447 0.0
13.392115485091276 0.35789555344261215 0.0
13.38550727365855 0.38977425835393875 0.0
13.378346109528684 0.4214834545559948 0.0
13.370637332877354 0.4530098234577661 0.0
13.362386679779316 0.48434023738152004 0.0
13.35360027501645 0.5154617731511157 0.0
13.344284624369712 0.5463617254265126 0.0
13.334446606400371 0.5770276197633428 0.0
13.324093463726875 0.6074472253759635 0.0
13.31323279380465 0.6376085675821084 0.0
13.301872539217321 0.6674999399069705 0.0
13.290020977488954 0.6971099158242827 0.0
13.277686710428208 0.7264273601118947 0.0
13.264878653016623 0.7554414397992222 0.0
13.251606021854613 0.7841416346840631 0.0
13.237878323180198 0.8125177473963654 0.0
13.223705340476975 0.8405599129868455 0.0
13.209097121689304 0.8682586080187333 0.0
13.194063966064281 0.8956046591414373 0.0
13.178616410641478 0.9225892511255721 0.0
13.16276521641307 0.9492039343395956 0.0
13.14652135417843 0.9754406316491975 0.0
13.129895990118651 1.00129164472168 0.0
13.112900471118053 1.0267496597187415 0.0
13.095546309860914 1.0518077523624105 0.0
13.077845169733024 1.0764593923603911 0.0
13.05980884955887 1.1006984471785957 0.0
13.04144926820631 1.1245191851503986 0.0
13.022778449091547 1.147916277913998 0.0
13.003808504618139 1.170884802171097 0.0
12.984551620584373 1.19342024076225 0.0
12.965020040594037 1.2155184830562114 0.0
12.945226050505857 1.2371758246528441 0.0
12.92518196295728 1.2583889664013277 0.0
12.904900101998196 1.279155012737665 0.0
12.88439278787023 1.2994714693477352 0.0
12.863672321966853 1.3193362401644473 0.0
12.842750972009153 1.3387476237097857 0.0
12.821640957471486 1.35770430879477 0.0
12.80035443529039 1.376205369592589 0.0
12.77890348588918 1.3942502601022573 0.0
12.757300099549488 1.411838808022241 0.0
12.735556163159773 1.4289712080554464 0.0
12.713683447369267 1.4456480146688686 0.0
12.691693594174298 1.4618701343329428 0.0
12.669598104962251 1.4776388172672368 0.0
12.647408329036457 1.492955648720697 0.0
12.625135452643486 1.5078225398159089 0.0
12.60279048852221 1.5222417179881 0.0
12.580384265991926 1.5362157170505846 0.0
12.5579274215946 1.549747366919244 0.0
12.535430390304139 1.5628397830292924 0.0
12.512903397313314 1.5754963554781205 0.0
12.490356450406665 1.5877207379283114 0.0
12.46779933292549 1.599516836305121 0.0
12.445241597328744 1.6108887973226764 0.0
12.422692559351468 1.6218409968729866 0.0
12.400161292760128 1.6323780283115281 0.0
12.37765662470222 1.6425046906726324 0.0
12.355187131645337 1.652225976847322 0.0
12.332761135898965 1.661547061755374 0.0
12.310386702710414 1.6704732905425614 0.0
12.288071637924412 1.6790101668328934 0.0
12.26582348619432 1.6871633410645963 0.0
12.243649529731275 1.6949385989372974 0.0
12.22155678757616 1.702341849996507 0.0
12.19955201537797 1.709379116380151 0.0
12.177641705660953 1.7160565217503383 0.0
12.155832088561834 1.7223802804320913 0.0
12.134129133017495 1.7283566867791458 0.0
12.112538548382735 1.733992104785339 0.0
12.091065786456939 1.7392929579584862 0.0
12.069716043898108 1.744265719472016 0.0
12.048494265002159 1.7489169026079963 0.0
12.027405144825135 1.753253051503598 0.0
12.00645313262587 1.7572807322114086 0.0
11.985642435606424 1.7610065240824837 0.0
11.964977022927846 1.7644370114794934 0.0
11.944460629978781 1.76757877582582 0.0
11.924096762874797 1.7704383879950305 0.0
11.903888703166551 1.77302240104384 0.0
11.883839512735399 1.7753373432902744 0.0
11.863952038855418 1.7773897117375623 0.0
11.844228919401475 1.7791859658430607 0.0
11.824672588183475 1.780732521630485 0.0
11.805285280387633 1.7820357461425567 0.0
11.786069038106309 1.7831019522303442 0.0
11.767025715938628 1.7839373936745986 0.0
11.748156986644947 1.7845482606336127 0.0
11.729464346838963 1.7849406754113746 0.0
11.729671782444115 -1.8225753489954037 0.0
11.748797800839695 -1.8225488227313438 0.0
11.768112428699606 -1.8223011748312965 0.0
11.787614320994589 -1.8218259285572689 0.0
11.807301948366598 -1.8211165272582095 0.0
11.827173590771185 -1.8201663386465812 0.0
11.847227331142653 -1.8189686594281356 0.0
11.867461049099665 -1.8175167202928881 0.0
11.887872414709795 -1.8158036912744766 0.0
11.908458882332626 -1.8138226874842518 0.0
11.929217684561703 -1.8115667752254554 0.0
11.950145826286686 -1.8090289784918272 0.0
11.971240078897724 -1.8062022858538191 0.0
11.992496974654907 -1.8030796577343946 0.0
12.013912801246327 -1.7996540340750726 0.0
12.035483596558906 -1.7959183423914675 0.0
12.057205143686675 -1.7918655062161424 0.0
12.079072966201672 -1.7874884539249978 0.0
12.101082323712987 -1.7827801279418263 0.0
12.123228207739675 -1.777733494313959 0.0
12.14550533792347 -1.7723415526502058 0.0
12.16790815860721 -1.7665973464104574 0.0
12.190430835804749 -1.7604939735345213 0.0
12.21306725458795 -1.7540245973958548 0.0
12.235811016915852 -1.7471824580639863 0.0
12.258655439930681 -1.7399608838575094 0.0
12.2815935547446 -1.7323533031676157 0.0
12.304618105740285 -1.7243532565302648 0.0
12.3277215504074 -1.7159544089232137 0.0
12.350896059735888 -1.7071505622623118 0.0
12.374133519185694 -1.6979356680697122 0.0
12.397425530251038 -1.6883038402849364 0.0
12.420763412635752 -1.6782493681881372 0.0
12.444138207054449 -1.667766729403395 0.0
12.467540678672329 -1.6568506029484638 0.0
12.490961321194453 -1.6454958822961447 0.0
12.51439036161312 -1.633697688411306 0.0
12.537817765619709 -1.6214513827266062 0.0
12.561233243684969 -1.6087525800191695 0.0
12.584626257809337 -1.5955971611498136 0.0
12.607986028942243 -1.5819812856259756 0.0
12.631301545066837 -1.5679014039492443 0.0
12.654561569943969 -1.553354269708318 0.0
12.6777546525065 -1.5383369513783705 0.0
12.700869136892507 -1.5228468437881453 0.0
12.723893173103217 -1.50688167921668 0.0
12.746814728268927 -1.4904395380822797 0.0
12.769621598503626 -1.4735188591874242 0.0
12.792301421326586 -1.4561184494843482 0.0
12.814841688626702 -1.4382374933275095 0.0
12.83722976014324 -1.419875561180679 0.0
12.859452877434325 -1.4010326177480887 0.0
12.881498178302628 -1.3817090295010368 0.0
12.903352711645773 -1.3619055715733719 0.0
12.925003452697299 -1.3416234340014537 0.0
12.946437318622554 -1.3208642272865478 0.0
12.96764118443252 -1.299629987259993 0.0
12.988601899177468 -1.2779231792340022 0.0
13.009306302381441 -1.2557467014235375 0.0
13.029741240677847 -1.2331038876273137 0.0
13.049893584605954 -1.2099985091586458 0.0
13.069750245527773 -1.1864347760195109 0.0
13.089298192624808 -1.1624173373138544 0.0
13.10852446993424 -1.1379512808987893 0.0
13.127416213384453 -1.11304213227491 0.0
13.14596066779039 -1.087695852719443 0.0
13.16414520376991 -1.0619188366684096 0.0
13.181957334543224 -1.0357179083562544 0.0
13.199384732578567 -1.0091003177236446 0.0
13.216415246048438 -0.982073735606217 0.0
13.233036915062142 -0.9546462482189879 0.0
13.24923798764174 -0.9268263509529462 0.0
13.265006935410192 -0.8986229415020064 0.0
13.280332468962047 -0.8700453123399526 0.0
13.295203552888763 -0.8411031425683412 0.0
13.309609420432574 -0.8118064891574793 0.0
13.323539587744548 -0.7821657776035447 0.0
13.336983867724356 -0.7521917920257634 0.0
13.349932383421072 -0.7218956647281731 0.0
13.362375580976135 -0.6912888652509988 0.0
13.374304242091426 -0.6603831889370019 0.0
13.385709496007017 -0.6291907450383395 0.0
13.396582830975031 -0.5977239443895075 0.0
13.406916105217434 -0.565995486671903 0.0
13.416701557357293 -0.5340183472952678 0.0
13.42593181631434 -0.5018057639210765 0.0
13.434599910657123 -0.4693712226524175 0.0
13.442699277405152 -0.4367284439145703 0.0
13.450223770275716 -0.4038913680498407 0.0
13.457167667370944 -0.3708741406497007 0.0
13.46352567830166 -0.33769109764661076 0.0
13.469292950745372 -0.3043567501872933 0.0
13.474465076436385 -0.27088576930852887 0.0
13.479038096586692 -0.2372929704359375 0.0
13.483008506736658 -0.20359329772553253 0.0
13.486373261035004 -0.1698018082672455 0.0
13.489129775947815 -0.13593365616904668 0.0
13.491275933396558 -0.10200407653975685 0.0
13.492810083325171 -0.0680283693881849 0.0
13.493731045696414 -0.034021883455819635 0.0
13.49403811191769 -2.220446049250313e-16 0.0
13.493731045696416 0.034021883455821106 0.0
13.492810083325168 0.06802836938818524 0.0
13.491275933396556 0.10200407653975868 0.0
13.489129775947815 0.13593365616904657 0.0
13.486373261035004 0.16980180826724633 0.0
13.48300850673666 0.20359329772553314 0.0
13.479038096586692 0.23729297043593855 0.0
13.474465076436385 0.27088576930853026 0.0
13.469292950745372 0.30435675018729436 0.0
13.46352567830166 0.3376910976466121 0.0
13.457167667370946 0.370874140649701 0.0
13.450223770275716 0.40389136804984127 0.0
13.44269927740515 0.4367284439145714 0.0
13.434599910657123 0.46937122265241815 0.0
13.42593181631434 0.5018057639210773 0.0
13.41670155735729 0.5340183472952692 0.0
13.406916105217434 0.5659954866719034 0.0
13.396582830975031 0.5977239443895087 0.0
13.385709496007017 0.6291907450383405 0.0
13.374304242091425 0.6603831889370044 0.0
13.362375580976135 0.6912888652509998 0.0
13.34993238342107 0.7218956647281735 0.0
13.336983867724356 0.7521917920257651 0.0
13.323539587744548 0.7821657776035449 0.0
13.309609420432572 0.8118064891574801 0.0
13.295203552888761 0.8411031425683417 0.0
13.280332468962047 0.8700453123399526 0.0
13.26500693541019 0.8986229415020084 0.0
13.249237987641738 0.9268263509529473 0.0
13.23303691506214 0.9546462482189886 0.0
13.216415246048438 0.9820737356062184 0.0
13.199384732578565 1.0091003177236453 0.0
13.181957334543222 1.0357179083562544 0.0
13.164145203769909 1.0619188366684105 0.0
13.145960667790389 1.087695852719444 0.0
13.127416213384453 1.113042132274911 0.0
13.10852446993424 1.137951280898791 0.0
13.089298192624808 1.1624173373138544 0.0
13.069750245527771 1.1864347760195115 0.0
13.049893584605954 1.209998509158646 0.0
13.029741240677849 1.233103887627314 0.0
13.00930630238144 1.255746701423538 0.0
12.988601899177468 1.2779231792340033 0.0
12.967641184432521 1.2996299872599941 0.0
12.946437318622552 1.320864227286549 0.0
12.925003452697297 1.341623434001455 0.0
12.903352711645772 1.361905571573373 0.0
12.881498178302628 1.3817090295010384 0.0
12.859452877434325 1.4010326177480892 0.0
12.837229760143238 1.4198755611806795 0.0
12.814841688626702 1.4382374933275106 0.0
12.792301421326584 1.4561184494843484 0.0
12.769621598503624 1.4735188591874253 0.0
12.746814728268925 1.4904395380822808 0.0
12.723893173103217 1.5068816792166788 0.0
12.700869136892505 1.5228468437881468 0.0
12.677754652506499 1.5383369513783705 0.0
12.654561569943969 1.5533542697083182 0.0
12.631301545066837 1.5679014039492454 0.0
12.60798602894224 1.5819812856259758 0.0
12.584626257809337 1.595597161149815 0.0
12.561233243684969 1.6087525800191702 0.0
12.537817765619709 1.621451382726606 0.0
12.51439036161312 1.6336976884113064 0.0
12.490961321194451 1.645495882296145 0.0
12.467540678672329 1.656850602948464 0.0
12.444138207054449 1.6677667294033947 0.0
12.420763412635752 1.6782493681881376 0.0
12.397425530251036 1.6883038402849377 0.0
12.374133519185694 1.697935668069713 0.0
12.350896059735888 1.707150562262312 0.0
12.3277215504074 1.7159544089232142 0.0
12.304618105740285 1.7243532565302662 0.0
12.2815935547446 1.7323533031676166 0.0
12.25865543993068 1.73996088385751 0.0
12.23581101691585 1.7471824580639868 0.0
12.21306725458795 1.7540245973958541 0.0
12.190430835804747 1.7604939735345204 0.0
12.167908158607208 1.7665973464104576 0.0
12.14550533792347 1.7723415526502069 0.0
12.123228207739674 1.7777334943139602 0.0
12.101082323712987 1.7827801279418267 0.0
12.079072966201672 1.7874884539249978 0.0
12.057205143686673 1.7918655062161424 0.0
12.035483596558906 1.795918342391468 0.0
12.013912801246327 1.799654034075073 0.0
11.992496974654907 1.8030796577343962 0.0
11.971240078897724 1.8062022858538183 0.0
11.950145826286686 1.8090289784918268 0.0
11.929217684561703 1.8115667752254567 0.0
11.908458882332626 1.8138226874842516 0.0
11.887872414709795 1.8158036912744775 0.0
11.867461049099665 1.8175167202928881 0.0
11.847227331142653 1.818968659428137 0.0
11.827173590771183 1.820166338646582 0.0
11.807301948366598 1.8211165272582097 0.0
11.787614320994589 1.8218259285572707 0.0
11.768112428699604 1.8223011748312952 0.0
11.748797800839695 1.8225488227313449 0.0
11.729671782444113 1.8225753489954026 0.0
11.729119825927887 -1.8610687916706157 0.0
11.748683880573065 -1.861433731482148 0.0
11.768449776503017 -1.8615752161423047 0.0
11.788416345754051 -1.8614863987664532 0.0
11.808582227828676 -1.8611603391190157 0.0
11.828945862605812 -1.8605900078998947 0.0
11.849505483255077 -1.859768291419821 0.0
11.87025910917422 -1.8586879966746817 0.0
11.891204538970033 -1.857341856828116 0.0
11.91233934350409 -1.8557225371107096 0.0
11.933660859025839 -1.853822641143117 0.0
11.95516618041652 -1.8516347176892904 0.0
11.976852154568522 -1.8491512678447914 0.0
11.998715373925652 -1.8463647526637754 0.0
12.020752170210656 -1.8432676012268168 0.0
12.042958608367247 -1.8398522191501965 0.0
12.06533048074451 -1.8361109975356047 0.0
12.087863301552222 -1.8320363223574603 0.0
12.110552301616137 -1.8276205842832496 0.0
12.133392423462661 -1.8228561889203052 0.0
12.156378316762654 -1.817735567480508 0.0
12.179504334164118 -1.812251187852268 0.0
12.202764527543659 -1.8063955660670779 0.0
12.22615264470624 -1.800161278145696 0.0
12.24966212656259 -1.793540972306866 0.0
12.273286104812943 -1.786527381519209 0.0
12.297017400165185 -1.7791133363747142 0.0
12.320848521114577 -1.7712917782600184 0.0
12.344771663311144 -1.7630557727994425 0.0
12.368778709539557 -1.7543985235416328 0.0
12.392861230334926 -1.7453133858594896 0.0
12.417010485256267 -1.7357938810310958 0.0
12.44121742483756 -1.7258337104673678 0.0
12.46547269323442 -1.7154267700503543 0.0
12.489766631582093 -1.704567164544403 0.0
12.514089282078348 -1.6932492220408606 0.0
12.538430392802159 -1.6814675083955604 0.0
12.56277942327661 -1.6692168416171804 0.0
12.587125550781666 -1.6564923061634924 0.0
12.611457677419551 -1.643289267101721 0.0
12.635764437932606 -1.629603384088645 0.0
12.660034208270469 -1.6154306251256911 0.0
12.684255114900294 -1.6007672800441273 0.0
12.70841504485073 -1.585609973675609 0.0
12.732501656477165 -1.5699556786636528 0.0
12.756502390932756 -1.55380172787225 0.0
12.780404484326592 -1.5371458263486604 0.0
12.804194980547456 -1.5199860627985802 0.0
12.82786074472865 -1.5023209205331693 0.0
12.8513884773266 -1.484149287849074 0.0
12.874764728783205 -1.4654704678043222 0.0
12.897975914739455 -1.446284187355069 0.0
12.921008331765407 -1.4265906058203295 0.0
12.943848173569426 -1.4063903226442869 0.0
12.96648154764769 -1.3856843844283369 0.0
12.988894492333111 -1.364474291207726 0.0
13.011072994201363 -1.3427620019505337 0.0
13.03300300579038 -1.3205499392596565 0.0
13.054670463588671 -1.2978409932615198 0.0
13.07606130624697 -1.2746385246683114 0.0
13.09716149296726 -1.2509463670036607 0.0
13.117957022022921 -1.2267688279848192 0.0
13.138433949363666 -1.2021106900575074 0.0
13.158578407259286 -1.1769772100826614 0.0
13.178376622936579 -1.1513741181773334 0.0
13.197814937164592 -1.1253076157149238 0.0
13.216879822744282 -1.0987843724927255 0.0
13.235557902859721 -1.071811523077482 0.0
13.25383596924943 -1.044396662342189 0.0
13.27170100015785 -1.016547840209781 0.0