# vtk DataFile Version 4.0
 
ASCII
DATASET UNSTRUCTURED_GRID
POINTS 20301 float
-0.5 -0.4 0.0
-0.49 -0.4 0.0
-0.48 -0.4 0.0
-0.47 -0.4 0.0
-0.46 -0.4 0.0
-0.45 -0.4 0.0
-0.44 -0.4 0.0
-0.43 -0.4 0.0
-0.42 -0.4 0.0
-0.41 -0.4 0.0
-0.4 -0.4 0.0
-0.39 -0.4 0.0
-0.38 -0.4 0.0
-0.37 -0.4 0.0
-0.36 -0.4 0.0
-0.35 -0.4 0.0
-0.34 -0.4 0.0
-0.33 -0.4 0.0
-0.32 -0.4 0.0
-0.31 -0.4 0.0
-0.3 -0.4 0.0
-0.29 -0.4 0.0
-0.28 -0.4 0.0
-0.27 -0.4 0.0
-0.26 -0.4 0.0
-0.25 -0.4 0.0
-0.24 -0.4 0.0
-0.23 -0.4 0.0
-0.22 -0.4 0.0
-0.21 -0.4 0.0
-0.2 -0.4 0.0
-0.19 -0.4 0.0
-0.18 -0.4 0.0
-0.17 -0.4 0.0
-0.16 -0.4 0.0
-0.15 -0.4 0.0
-0.14 -0.4 0.0
-0.13 -0.4 0.0
-0.12 -0.4 0.0
-0.11 -0.4 0.0
-0.1 -0.4 0.0
-0.09 -0.4 0.0
-0.08 -0.4 0.0
-0.07 -0.4 0.0
-0.06 -0.4 0.0
-0.05 -0.4 0.0
-0.04 -0.4 0.0
-0.03 -0.4 0.0
-0.02 -0.4 0.0
-0.01 -0.4 0.0
0.0 -0.4 0.0
0.01 -0.4 0.0
0.02 -0.4 0.0
0.03 -0.4 0.0
0.04 -0.4 0.0
0.05 -0.4 0.0
0.06 -0.4 0.0
0.07 -0.4 0.0
0.08 -0.4 0.0
0.09 -0.4 0.0
0.1 -0.4 0.0
0.11 -0.4 0.0
0.12 -0.4 0.0
0.13 -0.4 0.0
0.14 -0.4 0.0
0.15 -0.4 0.0
0.16 -0.4 0.0
0.17 -0.4 0.0
0.18 -0.4 0.0
0.19 -0.4 0.0
0.2 -0.4 0.0
0.21 -0.4 0.0
0.22 -0.4 0.0
0.23 -0.4 0.0
0.24 -0.4 0.0
0.25 -0.4 0.0
0.26 -0.4 0.0
0.27 -0.4 0.0
0.28 -0.4 0.0
0.29 -0.4 0.0
0.3 -0.4 0.0
0.31 -0.4 0.0
0.32 -0.4 0.0
0.33 -0.4 0.0
0.34 -0.4 0.0
0.35 -0.4 0.0
0.36 -0.4 0.0
0.37 -0.4 0.0
0.38 -0.4 0.0
0.39 -0.4 0.0
0.4 -0.4 0.0
0.41 -0.4 0.0
0.42 -0.4 0.0
0.43 -0.4 0.0
0.44 -0.4 0.0
0.45 -0.4 0.0
0.46 -0.4 0.0
0.47 -0.4 0.0
0.48 -0.4 0.0
0.49 -0.4 0.0
0.5 -0.4 0.0
0.51 -0.4 0.0
0.52 -0.4 0.0
0.53 -0.4 0.0
0.54 -0.4 0.0
0.55 -0.4 0.0
0.56 -0.4 0.0
0.57 -0.4 0.0
0.58 -0.4 0.0
0.59 -0.4 0.0
0.6 -0.4 0.0
0.61 -0.4 0.0
0.62 -0.4 0.0
0.63 -0.4 0.0
0.64 -0.4 0.0
0.65 -0.4 0.0
0.66 -0.4 0.0
0.67 -0.4 0.0
0.68 -0.4 0.0
0.69 -0.4 0.0
0.7 -0.4 0.0
0.71 -0.4 0.0
0.72 -0.4 0.0
0.73 -0.4 0.0
0.74 -0.4 0.0
0.75 -0.4 0.0
0.76 -0.4 0.0
0.77 -0.4 0.0
0.78 -0.4 0.0
0.79 -0.4 0.0
0.8 -0.4 0.0
0.81 -0.4 0.0
0.82 -0.4 0.0
0.83 -0.4 0.0
0.84 -0.4 0.0
0.85 -0.4 0.0
0.86 -0.4 0.0
0.87 -0.4 0.0
0.88 -0.4 0.0
0.89 -0.4 0.0
0.9 -0.4 0.0
0.91 -0.4 0.0
0.92 -0.4 0.0
0.93 -0.4 0.0
0.94 -0.4 0.0
0.95 -0.4 0.0
0.96 -0.4 0.0
0.97 -0.4 0.0
0.98 -0.4 0.0
0.99 -0.4 0.0
1.0 -0.4 0.0
1.01 -0.4 0.0
1.02 -0.4 0.0
1.03 -0.4 0.0
1.04 -0.4 0.0
1.05 -0.4 0.0
1.06 -0.4 0.0
1.07 -0.4 0.0
1.08 -0.4 0.0
1.09 -0.4 0.0
1.1 -0.4 0.0
1.11 -0.4 0.0
1.12 -0.4 0.0
1.13 -0.4 0.0
1.14 -0.4 0.0
1.15 -0.4 0.0
1.16 -0.4 0.0
1.17 -0.4 0.0
1.18 -0.4 0.0
1.19 -0.4 0.0
1.2 -0.4 0.0
1.21 -0.4 0.0
1.22 -0.4 0.0
1.23 -0.4 0.0
1.24 -0.4 0.0
1.25 -0.4 0.0
1.26 -0.4 0.0
1.27 -0.4 0.0
1.28 -0.4 0.0
1.29 -0.4 0.0
1.3 -0.4 0.0
1.31 -0.4 0.0
1.32 -0.4 0.0
1.33 -0.4 0.0
1.34 -0.4 0.0
1.35 -0.4 0.0
1.36 -0.4 0.0
1.37 -0.4 0.0
1.38 -0.4 0.0
1.39 -0.4 0.0
1.4 -0.4 0.0
1.41 -0.4 0.0
1.42 -0.4 0.0
1.43 -0.4 0.0
1.44 -0.4 0.0
1.45 -0.4 0.0
1.46 -0.4 0.0
1.47 -0.4 0.0
1.48 -0.4 0.0
1.49 -0.4 0.0
1.5 -0.4 0.0
-0.5 -0.392 0.0
-0.49 -0.392 0.0
-0.48 -0.392 0.0
-0.47 -0.392 0.0
-0.46 -0.392 0.0
-0.45 -0.392 0.0
-0.44 -0.392 0.0
-0.43 -0.392 0.0
-0.42 -0.392 0.0
-0.41 -0.392 0.0
-0.4 -0.392 0.0
-0.39 -0.392 0.0
-0.38 -0.392 0.0
-0.37 -0.392 0.0
-0.36 -0.392 0.0
-0.35 -0.392 0.0
-0.34 -0.392 0.0
-0.33 -0.392 0.0
-0.32 -0.392 0.0
-0.31 -0.392 0.0
-0.3 -0.392 0.0
-0.29 -0.392 0.0
-0.28 -0.392 0.0
-0.27 -0.392 0.0
-0.26 -0.392 0.0
-0.25 -0.392 0.0
-0.24 -0.392 0.0
-0.23 -0.392 0.0
-0.22 -0.392 0.0
-0.21 -0.392 0.0
-0.2 -0.392 0.0
-0.19 -0.392 0.0
-0.18 -0.392 0.0
-0.17 -0.392 0.0
-0.16 -0.392 0.0
-0.15 -0.392 0.0
-0.14 -0.392 0.0
-0.13 -0.392 0.0
-0.12 -0.392 0.0
-0.11 -0.392 0.0
-0.1 -0.392 0.0
-0.09 -0.392 0.0
-0.08 -0.392 0.0
-0.07 -0.392 0.0
-0.06 -0.392 0.0
-0.05 -0.392 0.0
-0.04 -0.392 0.0
-0.03 -0.392 0.0
-0.02 -0.392 0.0
-0.01 -0.392 0.0
0.0 -0.392 0.0
0.01 -0.392 0.0
0.02 -0.392 0.0
0.03 -0.392 0.0
0.04 -0.392 0.0
0.05 -0.392 0.0
0.06 -0.392 0.0
0.07 -0.392 0.0
0.08 -0.392 0.0
0.09 -0.392 0.0
0.1 -0.392 0.0
0.11 -0.392 0.0
0.12 -0.392 0.0
0.13 -0.392 0.0
0.14 -0.392 0.0
0.15 -0.392 0.0
0.16 -0.392 0.0
0.17 -0.392 0.0
0.18 -0.392 0.0
0.19 -0.392 0.0
0.2 -0.392 0.0
0.21 -0.392 0.0
0.22 -0.392 0.0
0.23 -0.392 0.0
0.24 -0.392 0.0
0.25 -0.392 0.0
0.26 -0.392 0.0
0.27 -0.392 0.0
0.28 -0.392 0.0
0.29 -0.392 0.0
0.3 -0.392 0.0
0.31 -0.392 0.0
0.32 -0.392 0.0
0.33 -0.392 0.0
0.34 -0.392 0.0
0.35 -0.392 0.0
0.36 -0.392 0.0
0.37 -0.392 0.0
0.38 -0.392 0.0
0.39 -0.392 0.0
0.4 -0.392 0.0
0.41 -0.392 0.0
0.42 -0.392 0.0
0.43 -0.392 0.0
0.44 -0.392 0.0
0.45 -0.392 0.0
0.46 -0.392 0.0
0.47 -0.392 0.0
0.48 -0.392 0.0
0.49 -0.392 0.0
0.5 -0.392 0.0
0.51 -0.392 0.0
0.52 -0.392 0.0
0.53 -0.392 0.0
0.54 -0.392 0.0
0.55 -0.392 0.0
0.56 -0.392 0.0
0.57 -0.392 0.0
0.58 -0.392 0.0
0.59 -0.392 0.0
0.6 -0.392 0.0
0.61 -0.392 0.0
0.62 -0.392 0.0
0.63 -0.392 0.0
0.64 -0.392 0.0
0.65 -0.392 0.0
0.66 -0.392 0.0
0.67 -0.392 0.0
0.68 -0.392 0.0
0.69 -0.392 0.0
0.7 -0.392 0.0
0.71 -0.392 0.0
0.72 -0.392 0.0
0.73 -0.392 0.0
0.74 -0.392 0.0
0.75 -0.392 0.0
0.76 -0.392 0.0
0.77 -0.392 0.0
0.78 -0.392 0.0
0.79 -0.392 0.0
0.8 -0.392 0.0
0.81 -0.392 0.0
0.82 -0.392 0.0
0.83 -0.392 0.0
0.84 -0.392 0.0
0.85 -0.392 0.0
0.86 -0.392 0.0
0.87 -0.392 0.0
0.88 -0.392 0.0
0.89 -0.392 0.0
0.9 -0.392 0.0
0.91 -0.392 0.0
0.92 -0.392 0.0
0.93 -0.392 0.0
0.94 -0.392 0.0
0.95 -0.392 0.0
0.96 -0.392 0.0
0.97 -0.392 0.0
0.98 -0.392 0.0
0.99 -0.392 0.0
1.0 -0.392 0.0
1.01 -0.392 0.0
1.02 -0.392 0.0
1.03 -0.392 0.0
1.04 -0.392 0.0
1.05 -0.392 0.0
1.06 -0.392 0.0
1.07 -0.392 0.0
1.08 -0.392 0.0
1.09 -0.392 0.0
1.1 -0.392 0.0
1.11 -0.392 0.0
1.12 -0.392 0.0
1.13 -0.392 0.0
1.14 -0.392 0.0
1.15 -0.392 0.0
1.16 -0.392 0.0
1.17 -0.392 0.0
1.18 -0.392 0.0
1.19 -0.392 0.0
1.2 -0.392 0.0
1.21 -0.392 0.0
1.22 -0.392 0.0
1.23 -0.392 0.0
1.24 -0.392 0.0
1.25 -0.392 0.0
1.26 -0.392 0.0
1.27 -0.392 0.0
1.28 -0.392 0.0
1.29 -0.392 0.0
1.3 -0.392 0.0
1.31 -0.392 0.0
1.32 -0.392 0.0
1.33 -0.392 0.0
1.34 -0.392 0.0
1.35 -0.392 0.0
1.36 -0.392 0.0
1.37 -0.392 0.0
1.38 -0.392 0.0
1.39 -0.392 0.0
1.4 -0.392 0.0
1.41 -0.392 0.0
1.42 -0.392 0.0
1.43 -0.392 0.0
1.44 -0.392 0.0
1.45 -0.392 0.0
1.46 -0.392 0.0
1.47 -0.392 0.0
1.48 -0.392 0.0
1.49 -0.392 0.0
1.5 -0.392 0.0
-0.5 -0.384 0.0
-0.49 -0.384 0.0
-0.48 -0.384 0.0
-0.47 -0.384 0.0
-0.46 -0.384 0.0
-0.45 -0.384 0.0
-0.44 -0.384 0.0
-0.43 -0.384 0.0
-0.42 -0.384 0.0
-0.41 -0.384 0.0
-0.4 -0.384 0.0
-0.39 -0.384 0.0
-0.38 -0.384 0.0
-0.37 -0.384 0.0
-0.36 -0.384 0.0
-0.35 -0.384 0.0
-0.34 -0.384 0.0
-0.33 -0.384 0.0
-0.32 -0.384 0.0
-0.31 -0.384 0.0
-0.3 -0.384 0.0
-0.29 -0.384 0.0
-0.28 -0.384 0.0
-0.27 -0.384 0.0
-0.26 -0.384 0.0
-0.25 -0.384 0.0
-0.24 -0.384 0.0
-0.23 -0.384 0.0
-0.22 -0.384 0.0
-0.21 -0.384 0.0
-0.2 -0.384 0.0
-0.19 -0.384 0.0
-0.18 -0.384 0.0
-0.17 -0.384 0.0
-0.16 -0.384 0.0
-0.15 -0.384 0.0
-0.14 -0.384 0.0
-0.13 -0.384 0.0
-0.12 -0.384 0.0
-0.11 -0.384 0.0
-0.1 -0.384 0.0
-0.09 -0.384 0.0
-0.08 -0.384 0.0
-0.07 -0.384 0.0
-0.06 -0.384 0.0
-0.05 -0.384 0.0
-0.04 -0.384 0.0
-0.03 -0.384 0.0
-0.02 -0.384 0.0
-0.01 -0.384 0.0
0.0 -0.384 0.0
0.01 -0.384 0.0
0.02 -0.384 0.0
0.03 -0.384 0.0
0.04 -0.384 0.0
0.05 -0.384 0.0
0.06 -0.384 0.0
0.07 -0.384 0.0
0.08 -0.384 0.0
0.09 -0.384 0.0
0.1 -0.384 0.0
0.11 -0.384 0.0
0.12 -0.384 0.0
0.13 -0.384 0.0
0.14 -0.384 0.0
0.15 -0.384 0.0
0.16 -0.384 0.0
0.17 -0.384 0.0
0.18 -0.384 0.0
0.19 -0.384 0.0
0.2 -0.384 0.0
0.21 -0.384 0.0
0.22 -0.384 0.0
0.23 -0.384 0.0
0.24 -0.384 0.0
0.25 -0.384 0.0
0.26 -0.384 0.0
0.27 -0.384 0.0
0.28 -0.384 0.0
0.29 -0.384 0.0
0.3 -0.384 0.0
0.31 -0.384 0.0
0.32 -0.384 0.0
0.33 -0.384 0.0
0.34 -0.384 0.0
0.35 -0.384 0.0
0.36 -0.384 0.0
0.37 -0.384 0.0
0.38 -0.384 0.0
0.39 -0.384 0.0
0.4 -0.384 0.0
0.41 -0.384 0.0
0.42 -0.384 0.0
0.43 -0.384 0.0
0.44 -0.384 0.0
0.45 -0.384 0.0
0.46 -0.384 0.0
0.47 -0.384 0.0
0.48 -0.384 0.0
0.49 -0.384 0.0
0.5 -0.384 0.0
0.51 -0.384 0.0
0.52 -0.384 0.0
0.53 -0.384 0.0
0.54 -0.384 0.0
0.55 -0.384 0.0
0.56 -0.384 0.0
0.57 -0.384 0.0
0.58 -0.384 0.0
0.59 -0.384 0.0
0.6 -0.384 0.0
0.61 -0.384 0.0
0.62 -0.384 0.0
0.63 -0.384 0.0
0.64 -0.384 0.0
0.65 -0.384 0.0
0.66 -0.384 0.0
0.67 -0.384 0.0
0.68 -0.384 0.0
0.69 -0.384 0.0
0.7 -0.384 0.0
0.71 -0.384 0.0
0.72 -0.384 0.0
0.73 -0.384 0.0
0.74 -0.384 0.0
0.75 -0.384 0.0
0.76 -0.384 0.0
0.77 -0.384 0.0
0.78 -0.384 0.0
0.79 -0.384 0.0
0.8 -0.384 0.0
0.81 -0.384 0.0
0.82 -0.384 0.0
0.83 -0.384 0.0
0.84 -0.384 0.0
0.85 -0.384 0.0
0.86 -0.384 0.0
0.87 -0.384 0.0
0.88 -0.384 0.0
0.89 -0.384 0.0
0.9 -0.384 0.0
0.91 -0.384 0.0
0.92 -0.384 0.0
0.93 -0.384 0.0
0.94 -0.384 0.0
0.95 -0.384 0.0
0.96 -0.384 0.0
0.97 -0.384 0.0
0.98 -0.384 0.0
0.99 -0.384 0.0
1.0 -0.384 0.0
1.01 -0.384 0.0
1.02 -0.384 0.0
1.03 -0.384 0.0
1.04 -0.384 0.0
1.05 -0.384 0.0
1.06 -0.384 0.0
1.07 -0.384 0.0
1.08 -0.384 0.0
1.09 -0.384 0.0
1.1 -0.384 0.0
1.11 -0.384 0.0
1.12 -0.384 0.0
1.13 -0.384 0.0
1.14 -0.384 0.0
1.15 -0.384 0.0
1.16 -0.384 0.0
1.17 -0.384 0.0
1.18 -0.384 0.0
1.19 -0.384 0.0
1.2 -0.384 0.0
1.21 -0.384 0.0
1.22 -0.384 0.0
1.23 -0.384 0.0
1.24 -0.384 0.0
1.25 -0.384 0.0
1.26 -0.384 0.0
1.27 -0.384 0.0
1.28 -0.384 0.0
1.29 -0.384 0.0
1.3 -0.384 0.0
1.31 -0.384 0.0
1.32 -0.384 0.0
1.33 -0.384 0.0
1.34 -0.384 0.0
1.35 -0.384 0.0
1.36 -0.384 0.0
1.37 -0.384 0.0
1.38 -0.384 0.0
1.39 -0.384 0.0
1.4 -0.384 0.0
1.41 -0.384 0.0
1.42 -0.384 0.0
1.43 -0.384 0.0
1.44 -0.384 0.0
1.45 -0.384 0.0
1.46 -0.384 0.0
1.47 -0.384 0.0
1.48 -0.384 0.0
1.49 -0.384 0.0
1.5 -0.384 0.0
-0.5 -0.376 0.0
-0.49 -0.376 0.0
-0.48 -0.376 0.0
-0.47 -0.376 0.0
-0.46 -0.376 0.0
-0.45 -0.376 0.0
-0.44 -0.376 0.0
-0.43 -0.376 0.0
-0.42 -0.376 0.0
-0.41 -0.376 0.0
-0.4 -0.376 0.0
-0.39 -0.376 0.0
-0.38 -0.376 0.0
-0.37 -0.376 0.0
-0.36 -0.376 0.0
-0.35 -0.376 0.0
-0.34 -0.376 0.0
-0.33 -0.376 0.0
-0.32 -0.376 0.0
-0.31 -0.376 0.0
-0.3 -0.376 0.0
-0.29 -0.376 0.0
-0.28 -0.376 0.0
-0.27 -0.376 0.0
-0.26 -0.376 0.0
-0.25 -0.376 0.0
-0.24 -0.376 0.0
-0.23 -0.376 0.0
-0.22 -0.376 0.0
-0.21 -0.376 0.0
-0.2 -0.376 0.0
-0.19 -0.376 0.0
-0.18 -0.376 0.0
-0.17 -0.376 0.0
[...]
POINT_DATA 20301

VECTORS U float
89.17977862774745 -386.31915688494973 0.0
92.89317984154503 -388.83326875729176 0.0
96.70589331573905 -391.3485737002485 0.0
100.62076528909544 -393.8630160162513 0.0
104.64068822359906 -396.3743702843785 0.0
108.76859581271015 -398.8802308330282 0.0
113.0074570944408 -401.3780008345464 0.0
117.3602695765712 -403.86488105491804 0.0
121.83005127596242 -406.3378583021094 0.0
126.41983156901925 -408.7936936286978 0.0
131.1326407461654 -411.2289103581517 0.0
135.97149815995425 -413.63978201964807 0.0
140.93939885448341 -416.02232029370657 0.0
146.03929856348526 -418.3722630903065 0.0
151.27409696623155 -420.6850629024128 0.0
156.6466190947061 -422.9558756011146 0.0
162.15959479290765 -425.1795498635831 0.0
167.81563614019578 -427.35061745171095 0.0
173.61721276593272 -429.4632845872044 0.0
179.56662500293078 -431.51142469767217 0.0
185.66597485306215 -433.4885728372292 0.0
191.91713477043265 -435.3879221135724 0.0
198.32171430638002 -437.20232248039207 0.0
204.8810247066737 -438.9242822781358 0.0
211.59604160505143 -440.54597292619326 0.0
218.46736601869137 -442.0592371837831 0.0
225.49518392029077 -443.4556014034776 0.0
232.67922473752532 -444.72629219825734 0.0
240.01871921290282 -445.8622579282053 0.0
247.51235714388415 -446.85419538419933 0.0
255.15824561261041 -447.69258200114905 0.0
262.9538684039774 -448.3677138705253 0.0
270.8960473967765 -448.8697497395998 0.0
278.9809067912741 -449.18876108195707 0.0
287.2038411033454 -449.3147882001804 0.0
295.55948790518323 -449.23790217787996 0.0
304.0417063204117 -448.9482723362754 0.0
312.64356228197505 -448.4362386735206 0.0
321.3573215294873 -447.69238857748763 0.0
330.17445125476337 -446.70763691079054 0.0
339.08563119688097 -445.47330837784693 0.0
348.08077483997795 -443.9812209062655 0.0
357.14906117851274 -442.2237686181118 0.0
366.2789772887517 -440.19400284038153 0.0
375.4583716869776 -437.88570951755156 0.0
384.67451817217164 -435.29348135101264 0.0
393.91418955371364 -432.4127830071009 0.0
403.16374036501526 -429.24000781196565 0.0
412.4091973753173 -425.7725244890028 0.0
421.63635644796926 -422.0087126914316 0.0
430.8308840679802 -417.9479863332975 0.0
439.9784216865949 -413.5908040182683 0.0
449.06469091610853 -408.93866619516285 0.0
458.0755975609069 -403.9940990183501 0.0
466.9973324940753 -398.7606252443463 0.0
475.8164674821425 -393.2427228373244 0.0
484.52004421900114 -387.4457722705652 0.0
493.0956550455926 -381.3759937845717 0.0
501.53151409342473 -375.0403760847309 0.0
509.81651788416457 -368.4465981243021 0.0
517.940294730048 -361.6029457179861 0.0
525.8932425961992 -354.51822476692246 0.0
533.6665553924505 -347.2016728505912 0.0
541.2522379469369 -339.66287086064494 0.0
548.6431101667198 -331.9116562243259 0.0
555.8328011048543 -323.95803910059504 0.0
562.815733824167 -315.81212274087113 0.0
569.587102073778 -307.4840289989234 0.0
576.1428398757167 -298.98382976093 0.0
582.4795851584794 -290.32148485588806 0.0
588.5946385762933 -281.50678680591614 0.0
594.4859186224008 -272.5493125913732 0.0
600.1519140878636 -263.45838244133836 0.0
605.5916348401017 -254.24302551848587 0.0
610.8045618036796 -244.91195224992526 0.0
615.7905969250588 -235.47353296213424 0.0
620.5500137979884 -225.93578240767852 0.0
625.0834095210315 -216.30634972227384 0.0
629.39165825662 -206.5925133206474 0.0
633.4758668645873 -196.80118022611526 0.0
637.3373328941241 -186.9388893292069 0.0
640.9775051376816 -177.01181808242998 0.0
644.397946879181 -167.02579215903378 0.0
647.6003019071296 -156.98629763109062 0.0
650.5862633107865 -146.89849525452382 0.0
653.3575450338542 -136.7672364841024 0.0
655.9158561249594 -126.59708087855354 0.0
658.2628775964475 -116.39231459361935 0.0
660.4002417823353 -106.15696969819197 0.0
662.3295140716893 -95.89484408487476 0.0
664.0521768846419 -85.60952178087132 0.0
665.5696157539837 -75.30439349756378 0.0
666.8831073751442 -64.98267728723015 0.0
667.9938094908003 -54.64743920280525 0.0
668.9027524828093 -44.30161388129234 0.0
669.6108325530873 -33.9480249932887 0.0
670.118806386047 -23.58940552004639 0.0
670.4272871977784 -13.228417835559288 0.0
670.5367420910175 -2.867673584364283 0.0
670.4474906496097 7.490246643862365 0.0
670.1597047214955 17.842773834189444 0.0
669.6734093547884 28.18733124708605 0.0
668.9884848671535 38.52131528372996 0.0
668.1046700441548 48.84207649992244 0.0
667.0215664772871 59.14690075505661 0.0
665.738644066969 69.43299048740498 0.0
664.2552477295593 79.69744611412115 0.0
662.5706053603362 89.93724756369798 0.0
660.6838371162133 100.14923596023793 0.0
658.593966092438 110.33009549268242 0.0
656.2999304765209 120.47633551819276 0.0
653.8005972697637 130.58427296709456 0.0
651.0947776718473 140.65001513723507 0.0
648.1812442264178 150.66944298819882 0.0
645.0587498252717 160.63819507047046 0.0
641.7260486649002 170.5516522512449 0.0
638.1819192413952 180.40492342688808 0.0
634.4251894574389 190.19283244175432 0.0
630.454763897587 199.9099064636913 0.0
626.2696533048127 209.55036609754973 0.0
621.8690062615062 219.1081175485016 0.0
617.2521430414503 228.57674717606585 0.0
612.4185915549962 237.949518806157 0.0
607.368125257622 247.2193741908416 0.0
602.1008028320028 256.3789370221271 0.0
596.6170093858859 265.42052091513926 0.0
590.917498832962 274.3361417754793 0.0
585.003437042532 283.1175349531573 0.0
578.8764452575895 291.75617755912964 0.0
572.5386431920875 300.24331627801547 0.0
565.9926911293022 308.5700009500697 0.0
559.2418302578565 316.7271241155174 0.0
552.2899204039795 324.7054666139237 0.0
545.141474252668 332.4957492102759 0.0
537.8016871014543 340.0886900787153 0.0
530.2764611637172 347.4750678164721 0.0
522.5724234389482 354.64578948779285 0.0
514.6969361998132 361.59196301540385 0.0
506.65809921406657 368.3049730513895 0.0
498.46474292603443 374.77655927780836 0.0
490.12641196841827 380.9988959184078 0.0
481.6533385596195 386.9646710955043 0.0
473.05640556124985 392.66716454984254 0.0
464.3470992193727 398.10032216474394 0.0
455.5374518831342 403.25882570680193 0.0
446.63997527567693 408.1381562196104 0.0
437.6675851727456 412.7346495878558 0.0
428.63351861134265 417.04554292707496 0.0
419.5512449912126 421.0690106466413 0.0
410.43437263348386 424.8041892740646 0.0
401.2965525128463 428.2511904083807 0.0
392.15138097389587 431.41110147751886 0.0
383.01230327360594 434.2859742956957 0.0
373.89251975863635 436.87880173747703 0.0
364.80489639031174 439.19348315095516 0.0
355.76188117708233 441.2347794100336 0.0
346.7754278725645 443.00825874375886 0.0
337.85692805763523 444.52023467008735 0.0
329.01715245989743 445.7776974967866 0.0
320.26620208600116 446.78824093079345 0.0
311.6134694644935 447.55998536005427 0.0
303.0676100306414 448.101499342192 0.0
294.63652343991686 448.42172075822833 0.0
286.32734438135975 448.52987897470763 0.0
278.1464422812221 448.4354192126515 0.0
270.0994291442725 448.14793015591124 0.0
262.1911746757059 447.6770756536692 0.0
254.4258277597038 447.0325311902879 0.0
246.80684333863354 446.2239256175999 0.0
239.33701373585833 445.26078847609625 0.0
232.01850349053032 444.1525030767858 0.0
224.8528868196307 442.9082653779976 0.0
217.84118688582856 441.5370485729968 0.0
210.98391612471218 440.0475732057616 0.0
204.28111696715797 438.4482825534218 0.0
197.7324023782166 436.7473229538254 0.0
191.33699571966073 434.9525287139526 0.0
185.09376952665474 433.07141120766704 0.0
179.00128286785227 431.11115175747483 0.0
173.0578170311928 429.0785978925199 0.0
167.2614093438145 426.98026258184706 0.0
161.60988499331296 424.8223260561146 0.0
156.10088676891715 422.61063985059116 0.0
150.73190268513773 420.3507327258961 0.0
145.50029148739583 418.04781814913264 0.0
140.40330606954075 415.7068030456841 0.0
135.43811485758337 413.33229756002606 0.0
130.60182123302232 410.9286255917272 0.0
125.89148108346386 408.49983589977876 0.0
121.3041185784569 406.049713594069 0.0
116.83674027519973 403.58179185688095 0.0
112.48634766255715 401.09936375966726 0.0
108.24994825319918 398.6054940607219 0.0
104.12456533307466 396.1030308879594 0.0
100.10724647528181 393.5946172276058 0.0
96.19507092204464 391.0827021544381 0.0
92.38515593424725 388.56955175226676 0.0
88.67466220309252 386.05725968480544 0.0
85.06079841312474 383.5477573870217 0.0
81.5408250402937 381.0428238555936 0.0
78.11205746306135 378.54409502445577 0.0
87.13844415684795 -389.24967057368127 0.0
90.84920384152245 -391.84270881368633 0.0
94.66083817451383 -394.4392488370169 0.0
98.57632636830857 -397.03727700643066 0.0
102.59870238233479 -399.6346064386102 0.0
106.73105027296587 -402.2288657891192 0.0
110.9764986275877 -404.8174875844964 0.0
115.33821398218305 -407.39769612969025 0.0
119.81939311524832 -409.9664950297798 0.0
124.42325410460387 -412.52065437737997 0.0
129.15302602796737 -415.05669767148316 0.0
134.01193718335352 -417.57088854986944 0.0
139.00320170174962 -420.0592174357626 0.0
144.13000442251106 -422.5173882202335 0.0
149.3954839019652 -424.9408051250105 0.0
154.80271342836326 -427.3245599158742 0.0
160.35467992214035 -429.66341966456974 0.0
166.05426061012585 -431.9518152871134 0.0
171.90419737659275 -434.1838311180774 0.0
177.90706871362468 -436.3531958136181 0.0
184.0652592190017 -438.4532749099523 0.0
190.38092662246018 -440.4770653979689 0.0
196.85596636153434 -442.41719270759086 0.0
203.49197377690535 -444.26591052613617 0.0
210.29020405480622 -446.015103901645 0.0
217.251530110876 -447.65629610320815 0.0
224.37639868595707 -449.1806597235073 0.0
231.66478500928037 -450.5790325118377 0.0
239.11614647748164 -451.8419384162121 0.0
246.7293758974428 -452.959614288091 0.0
254.50275494494602 -453.92204266026425 0.0
262.433908596702 -454.7189909448477 0.0
270.519761396728 -455.3400573122168 0.0
278.75649651488095 -455.7747234013242 0.0
287.1395186402628 -456.0124138765695 0.0
295.66342181941013 -456.04256268653006 0.0
304.32196339228284 -455.8546856970889 0.0
313.1080451917036 -455.43845916913824 0.0
322.0137031478613 -454.7838033339781 0.0
331.0301063733654 -453.8809700946958 0.0
340.14756669193406 -452.720633657591 0.0
349.35555941270235 -451.29398268431555 0.0
358.6427559423131 -449.59281236385755 0.0
367.9970685710253 -447.6096146457926 0.0
377.4057074728115 -445.33766476378815 0.0
386.8552496316186 -442.77110212199887 0.0
396.3317190584722 -439.905003625373 0.0
405.8206773112605 -436.7354476140477 0.0
415.307322986957 -433.2595667143945 0.0
424.7765985417178 -429.47558814319746 0.0
434.21330252438975 -425.38286029097003 0.0
443.60220509859306 -420.98186475519634 0.0
452.9281645900952 -416.27421338031013 0.0
462.1762427382576 -411.2626302713734 0.0
471.3318163570917 -405.9509191638393 0.0
480.3806832219577 -400.3439169329603 0.0
489.30916018665664 -394.4474343947172 0.0
498.1041717922853 -388.2681858691716 0.0
506.75332794009097 -381.8137092335705 0.0
515.2449895492532 -375.092278377313 0.0
523.5683214893793 -368.1128100792941 0.0
531.7133324489564 -360.8847673600945 0.0
539.6709017583289 -353.418061321105 0.0
547.4327935148459 -345.72295337762694 0.0
554.9916586470035 -337.80995963366087 0.0
562.3410257956069 -329.68975894473465 0.0
569.475282078452 -321.37310598455275 0.0
576.3896449393186 -312.87075038439934 0.0
583.0801263636016 -304.19336276292654 0.0
589.5434907755856 -295.3514682186897 0.0
595.7772079216586 -286.35538762711144 0.0
601.7794019966391 -277.21518687401965 0.0
607.5487981939374 -267.9406339739603 0.0
613.0846677621372 -258.541163865736 0.0
618.3867725375846 -249.02585055086652 0.0
623.4553098012693 -239.4033861424062 0.0
628.2908581840958 -229.68206632008625 0.0
632.8943252221576 -219.86978164067136 0.0
637.2668970464604 -209.97401412681202 0.0
641.4099905823425 -200.00183855034484 0.0
645.3252085342929 -189.9599278337683 0.0
649.0142973432436 -179.85456201343175 0.0
652.4791082258922 -169.69164023695902 0.0
655.7215613393873 -159.47669530308605 0.0
658.7436130592331 -149.21491029222187 0.0
661.547226312965 -138.91113687879172 0.0
664.1343438762584 -128.5699149603222 0.0
666.5068645105791 -118.19549328201511 0.0
668.6666218017334 -107.79185077835616 0.0
670.6153655453918 -97.36271839435061 0.0
672.3547455183918 -86.91160118776183 0.0
673.8862974723536 -76.44180054986695 0.0
675.2114311882286 -65.95643641546461 0.0
676.3314204361728 -55.45846936299071 0.0
677.2473946940087 -44.95072253252282 0.0
677.9603324889027 -34.43590331312801 0.0
678.4710562403717 -23.916624771417315 0.0
678.7802284976943 -13.395426810363382 0.0
678.8883494810707 -2.874797061455671 0.0
678.7957558528727 7.642808475790062 0.0
678.5026206628645 18.15494502499305 0.0
678.0089544290277 28.65915882767987 0.0
677.3146073333381 39.152967112272634 0.0
676.4192725293103 49.63383820822964 0.0
675.3224905751564 60.09917177915102 0.0
674.0236550228509 70.54627915402008 0.0
672.5220192090464 80.97236374353113 0.0
670.8167043085264 91.37450153862825 0.0
668.9067087245347 101.74962170091187 0.0
666.7909189026706 112.09448726952718 0.0
664.4681216658382 122.40567602648028 0.0
661.9370181768263 132.67956158215335 0.0
659.1962396419498 142.9122947650462 0.0
656.2443648735723 153.09978542457452 0.0
653.0799398307377 163.23768478294755 0.0
649.7014992549433 173.32136850178648 0.0
646.1075905118178 183.34592066092023 0.0
642.2967997383124 193.30611888053346 0.0
638.2677803782689 203.19642085305466 0.0
634.019284166178 213.01095258729347 0.0
629.5501945886493 222.7434987035566 0.0
624.8595628149975 232.38749515376986 0.0
619.946646041556 241.93602477368032 0.0
614.8109481384337 251.38181610351205 0.0
609.4522624220717 260.71724593701765 0.0
603.8707163020688 269.9343460747236 0.0
598.0668174668114 279.0248147627766 0.0
592.0415011802334 287.9800332916938 0.0
585.7961781631408 296.7910882067532 0.0
579.3327824290586 305.4487995411105 0.0
572.6538183395803 313.9437554215034 0.0
565.7624060413408 322.2663533124885 0.0
558.6623243507556 330.4068480571315 0.0
551.3580500687474 338.35540673925294 0.0
543.8547926418491 346.10217023532743 0.0
536.1585230445095 353.6373211448305 0.0
528.275995746575 360.95115758973503 0.0
520.214762655593 368.0341721623057 0.0
511.98317799100136 374.8771350822752 0.0
503.59039316004333 381.47118040866394 0.0
495.04634086524914 387.80789394799785 0.0
486.36170787991756 393.8794013205158 0.0
477.54789617784184 399.6784545005372 0.0
468.6169723901778 405.19851504743195 0.0
459.5816058765276 410.4338321993228 0.0
450.4549960269105 415.37951402031433 0.0
441.2507897421304 420.03158987831785 0.0
431.98299035648233 424.38706268548447 0.0
422.665859552874 428.4439495538836 0.0
413.3138140610364 432.201309798334 0.0
403.9413191113371 435.6592595452631 0.0
394.56278072954495 438.81897256699193 0.0
385.19243899522354 441.6826673384427 0.0
375.8442643463132 444.2535806901978 0.0
366.5318588972313 446.5359287905827 0.0
357.26836455443834 448.5348565136022 0.0
348.06637947231366 450.25637652541496 0.0
338.93788410684135 451.707299638946 0.0
329.89417781019375 452.89515813763154 0.0
320.9458265817061 453.82812385259786 0.0
312.1026222652611 454.51492279415066 0.0
303.3735531737201 454.96474809319153 0.0
294.76678583941066 455.1871729087979 0.0
286.2896573447561 455.1920648143733 0.0
277.94867748496733 454.98950299743274 0.0
269.7495398583655 454.5896994083422 0.0
261.6971408697442 454.00292478200987 0.0
253.7956055663064 453.2394402434046 0.0
246.0483192003584 452.30943500121833 0.0
238.45796342307602 451.22297044077277 0.0
231.02655605342304 449.9899307523587 0.0
223.75549342958948 448.61998007796296 0.0
216.6455944309756 447.12252602952384 0.0
209.69714535117635 445.5066893259362 0.0
202.90994490137712 443.78127921336693 0.0
196.28334872478248 441.9547742725958 0.0
189.81631290247543 440.0353081760088 0.0
183.50743602665594 438.030659933187 0.0
177.35499950642736 435.9482481551489 0.0
171.35700585279523 433.79512887072855 0.0
165.51121476244106 431.57799644172115 0.0
159.8151768838005 429.30318714416165 0.0
154.2662652040159 426.9766850092377 0.0
148.8617040417749 424.60412954720067 0.0
143.59859566939159 422.19082500964936 0.0
138.47394461843098 419.7417508785144 0.0
133.48467974742505 417.2615733029479 0.0
128.62767416858918 414.75465723736585 0.0
123.89976314368603 412.22507906451074 0.0
119.29776006803384 409.6766395161944 0.0
114.81847066684752 407.11287673112656 0.0
110.4587055302385 404.53707931367273 0.0
106.21529111289995 401.9522992796074 0.0
102.08507932223995 399.36136479483815 0.0
98.0649558149683 396.76689263077407 0.0
94.15184711726046 394.1713002756292 0.0
90.34272667793724 391.576817654597 0.0
86.6346199578825 388.9854984236402 0.0
83.02460865239243 386.3992308118158 0.0
79.50983413648743 383.8197479957069 0.0
76.08750021656112 381.2486379968282 0.0
85.03442452184933 -392.17674508556 0.0
88.7406731998476 -394.8498935217144 0.0
92.54932136201361 -397.5289564134365 0.0
96.46348363676101 -400.21196906038864 0.0
100.4863384487589 -402.89679029612864 0.0
104.62112377069097 -405.5810905732936 0.0
108.87113194268647 -408.262339515237 0.0
113.23970345089079 -410.9377929564434 0.0
117.7302195486483 -413.6044795048874 0.0
122.34609359597019 -416.2591866723153 0.0
127.09076098563449 -418.8984466332762 0.0
131.9676675176447 -421.51852169089375 0.0
136.98025607826406 -424.1153895469738 0.0
142.13195147582243 -426.6847284963318 0.0
147.42614328349674 -429.2219026901792 0.0
152.8661665398371 -431.7219476412627 0.0
158.45528016165406 -434.1795561740753 0.0
164.1966429317113 -436.5890650568059 0.0
170.09328693633302 -438.94444258753316 0.0
176.1480883464494 -441.23927744509723 0.0
182.36373546068282 -443.4667691545243 0.0
188.74269396185602 -445.61972055705974 0.0
195.28716937970873 -447.690532714637 0.0
201.99906680357162 -449.6712027166991 0.0
208.87994795004138 -451.5533248919085 0.0
215.93098576289148 -453.3280959564816 0.0
223.15291680580165 -454.9863246521395 0.0
230.54599180285703 -456.51844643746614 0.0
238.10992478640867 -457.9145437935569 0.0
245.84384142550743 -459.16437268526977 0.0
253.74622722847533 -460.25739567969424 0.0
261.81487643728724 -461.1828221605763 0.0
270.0468425551707 -461.9296559884551 0.0
278.43839156719764 -462.48675083891044 0.0
286.9849590205202 -462.8428733042014 0.0
295.6811122194379 -462.98677366652333 0.0
304.52051885303047 -462.90726404548406 0.0
313.4959234018181 -462.59330339145515 0.0
322.5991326570291 -462.03408854553936 0.0
331.8210116245224 -461.2191503236124 0.0
341.1514909695218 -460.13845331601783 0.0
350.57958698438705 -458.782497837939 0.0
360.0934348287621 -457.1424222315974 0.0
369.68033550193616 -455.21010352464054 0.0
379.32681666727353 -452.97825430382125 0.0
389.0187070681621 -450.4405135827411 0.0
398.7412238678829 -447.59152943836915 0.0
408.4790718293314 -444.4270312712619 0.0
418.21655284408797 -440.9438897126455 0.0
427.937683944835 -437.1401624564547 0.0
437.62632161106137 -433.0151246292982 0.0
447.2662899242617 -428.5692827139346 0.0
456.8415099609069 -423.8043714952931 0.0
466.3361277401769 -418.72333398146384 0.0
475.7346380740687 -413.330284742248 0.0
485.0220017990267 -407.6304575808875 0.0
494.18375409369463 -401.6301388875867 0.0
503.2061018940402 -395.33658839626526 0.0
512.0760087879272 -388.757949362622 0.0
520.7812661858015 -381.9031503912099 0.0
529.3105500008577 -374.7818012565871 0.0
537.6534625091921 -367.4040850892727 0.0
545.8005594779249 -359.7806492368285 0.0
553.7433630300853 -351.92249697398165 0.0
561.4743610456848 -343.840882036591 0.0
568.9869941696286 -335.5472077076452 0.0
576.2756317041594 -327.05293190534746 0.0
583.3355378053094 -318.36947942929237 0.0
590.1628294821767 -309.50816222497946 0.0
596.7544279199158 -300.4801082416704 0.0
603.1080046198081 -291.2961991937137 0.0
609.2219237810212 -281.9670172981352 0.0
615.0951822480326 -272.5028008561777 0.0
620.7273482239582 -262.91340837595413 0.0
626.118499811828 -253.20829079773563 0.0
631.2691643003387 -243.39647128136926 0.0
636.1802589644396 -233.48653194442983 0.0
640.8530340090094 -223.48660689657774 0.0
645.2890181499827 -213.40438089650905 0.0
649.4899672041133 -203.24709295883844 0.0
653.4578159479588 -193.0215442553688 0.0